3
Step 1
O -0.083936 -0.134298 0.000000
H -0.083936 1.365700 0.000000
H 1.416060 0.765702 0.000000
3
Step 1-2 Interpolated 1/9
O -0.078480 -0.123987 0.000000
H -0.080434 1.357267 0.000000
H 1.407102 0.763825 0.000000
3
Step 1-2 Interpolated 2/9
O -0.073024 -0.113677 0.000000
H -0.076932 1.348834 0.000000
H 1.398144 0.761947 0.000000
3
Step 1-2 Interpolated 3/9
O -0.067568 -0.103366 0.000000
H -0.073431 1.340401 0.000000
H 1.389186 0.760069 0.000000
3
Step 1-2 Interpolated 4/9
O -0.062112 -0.093056 0.000000
H -0.069929 1.331968 0.000000
H 1.380228 0.758192 0.000000
3
Step 1-2 Interpolated 5/9
O -0.056656 -0.082745 0.000000
H -0.066427 1.323535 0.000000
H 1.371270 0.756315 0.000000
3
Step 1-2 Interpolated 6/9
O -0.051200 -0.072435 0.000000
H -0.062925 1.315102 0.000000
H 1.362312 0.754437 0.000000
3
Step 1-2 Interpolated 7/9
O -0.045744 -0.062124 0.000000
H -0.059423 1.306669 0.000000
H 1.353354 0.752560 0.000000
3
Step 1-2 Interpolated 8/9
O -0.040288 -0.051814 0.000000
H -0.055922 1.298236 0.000000
H 1.344396 0.750682 0.000000
3
Step 1-2 Interpolated 9/9
O -0.034832 -0.041503 0.000000
H -0.052420 1.289803 0.000000
H 1.335438 0.748804 0.000000
3
Step 2
O -0.029376 -0.031192 0.000000
H -0.048918 1.281370 0.000000
H 1.326480 0.746927 0.000000
3
Step 2-3 Interpolated 1/9
O -0.018401 -0.014922 0.000000
H -0.064479 1.261815 0.000000
H 1.317446 0.724472 0.000000
3
Step 2-3 Interpolated 2/9
O -0.007426 0.001349 0.000000
H -0.080040 1.242260 0.000000
H 1.308412 0.702017 0.000000
3
Step 2-3 Interpolated 3/9
O 0.003548 0.017620 0.000000
H -0.095600 1.222705 0.000000
H 1.299378 0.679561 0.000000
3
Step 2-3 Interpolated 4/9
O 0.014523 0.033891 0.000000
H -0.111161 1.203150 0.000000
H 1.290344 0.657106 0.000000
3
Step 2-3 Interpolated 5/9
O 0.025498 0.050162 0.000000
H -0.126722 1.183595 0.000000
H 1.281310 0.634651 0.000000
3
Step 2-3 Interpolated 6/9
O 0.036472 0.066433 0.000000
H -0.142283 1.164040 0.000000
H 1.272276 0.612196 0.000000
3
Step 2-3 Interpolated 7/9
O 0.047447 0.082703 0.000000
H -0.157844 1.144485 0.000000
H 1.263242 0.589741 0.000000
3
Step 2-3 Interpolated 8/9
O 0.058421 0.098974 0.000000
H -0.173404 1.124930 0.000000
H 1.254208 0.567285 0.000000
3
Step 2-3 Interpolated 9/9
O 0.069396 0.115245 0.000000
H -0.188965 1.105375 0.000000
H 1.245174 0.544830 0.000000
3
Step 3
O 0.080371 0.131516 0.000000
H -0.204526 1.085820 0.000000
H 1.236140 0.522375 0.000000
3
Step 3-4 Interpolated 1/9
O 0.084838 0.125603 0.000000
H -0.211857 1.055632 0.000000
H 1.200273 0.496440 0.000000
3
Step 3-4 Interpolated 2/9
O 0.089305 0.119690 0.000000
H -0.219188 1.025444 0.000000
H 1.164406 0.470505 0.000000
3
Step 3-4 Interpolated 3/9
O 0.093772 0.113776 0.000000
H -0.226519 0.995256 0.000000
H 1.128539 0.444571 0.000000
3
Step 3-4 Interpolated 4/9
O 0.098240 0.107863 0.000000
H -0.233850 0.965068 0.000000
H 1.092672 0.418636 0.000000
3
Step 3-4 Interpolated 5/9
O 0.102707 0.101950 0.000000
H -0.241181 0.934880 0.000000
H 1.056806 0.392701 0.000000
3
Step 3-4 Interpolated 6/9
O 0.107174 0.096037 0.000000
H -0.248511 0.904692 0.000000
H 1.020939 0.366766 0.000000
3
Step 3-4 Interpolated 7/9
O 0.111641 0.090124 0.000000
H -0.255842 0.874504 0.000000
H 0.985072 0.340831 0.000000
3
Step 3-4 Interpolated 8/9
O 0.116109 0.084211 0.000000
H -0.263173 0.844316 0.000000
H 0.949205 0.314897 0.000000
3
Step 3-4 Interpolated 9/9
O 0.120576 0.078297 0.000000
H -0.270504 0.814128 0.000000
H 0.913338 0.288962 0.000000
3
Step 4
O 0.125043 0.072384 0.000000
H -0.277835 0.783940 0.000000
H 0.877471 0.263027 0.000000
3
Step 4-5 Interpolated 1/9
O 0.107893 0.057394 0.000000
H -0.297966 0.775526 0.000000
H 0.871371 0.249571 0.000000
3
Step 4-5 Interpolated 2/9
O 0.090744 0.042403 0.000000
H -0.318097 0.767113 0.000000
H 0.865271 0.236114 0.000000
3
Step 4-5 Interpolated 3/9
O 0.073594 0.027412 0.000000
H -0.338229 0.758699 0.000000
H 0.859171 0.222658 0.000000
3
Step 4-5 Interpolated 4/9
O 0.056444 0.012422 0.000000
H -0.358360 0.750285 0.000000
H 0.853071 0.209201 0.000000
3
Step 4-5 Interpolated 5/9
O 0.039294 -0.002569 0.000000
H -0.378491 0.741872 0.000000
H 0.846971 0.195745 0.000000
3
Step 4-5 Interpolated 6/9
O 0.022145 -0.017559 0.000000
H -0.398622 0.733458 0.000000
H 0.840872 0.182289 0.000000
3
Step 4-5 Interpolated 7/9
O 0.004995 -0.032550 0.000000
H -0.418753 0.725044 0.000000
H 0.834772 0.168832 0.000000
3
Step 4-5 Interpolated 8/9
O -0.012155 -0.047541 0.000000
H -0.438885 0.716630 0.000000
H 0.828672 0.155376 0.000000
3
Step 4-5 Interpolated 9/9
O -0.029305 -0.062531 0.000000
H -0.459016 0.708217 0.000000
H 0.822572 0.141919 0.000000
3
Step 5
O -0.046454 -0.077522 0.000000
H -0.479147 0.699803 0.000000
H 0.816472 0.128463 0.000000
3
Step 5-6 Interpolated 1/9
O -0.041766 -0.080359 0.000000
H -0.480490 0.707411 0.000000
H 0.819840 0.130442 0.000000
3
Step 5-6 Interpolated 2/9
O -0.037078 -0.083197 0.000000
H -0.481832 0.715020 0.000000
H 0.823209 0.132421 0.000000
3
Step 5-6 Interpolated 3/9
O -0.032390 -0.086035 0.000000
H -0.483175 0.722628 0.000000
H 0.826577 0.134399 0.000000
3
Step 5-6 Interpolated 4/9
O -0.027702 -0.088872 0.000000
H -0.484517 0.730237 0.000000
H 0.829946 0.136378 0.000000
3
Step 5-6 Interpolated 5/9
O -0.023014 -0.091710 0.000000
H -0.485860 0.737845 0.000000
H 0.833314 0.138357 0.000000
3
Step 5-6 Interpolated 6/9
O -0.018326 -0.094548 0.000000
H -0.487203 0.745453 0.000000
H 0.836682 0.140336 0.000000
3
Step 5-6 Interpolated 7/9
O -0.013638 -0.097385 0.000000
H -0.488545 0.753062 0.000000
H 0.840051 0.142315 0.000000
3
Step 5-6 Interpolated 8/9
O -0.008950 -0.100223 0.000000
H -0.489888 0.760670 0.000000
H 0.843419 0.144293 0.000000
3
Step 5-6 Interpolated 9/9
O -0.004262 -0.103060 0.000000
H -0.491230 0.768279 0.000000
H 0.846788 0.146272 0.000000
3
Step 6
O 0.000426 -0.105898 0.000000
H -0.492573 0.775887 0.000000
H 0.850156 0.148251 0.000000
3
Step 6-7 Interpolated 1/9
O -0.006308 -0.100312 0.000000
H -0.493515 0.777853 0.000000
H 0.851716 0.153399 0.000000
3
Step 6-7 Interpolated 2/9
O -0.013042 -0.094726 0.000000
H -0.494457 0.779819 0.000000
H 0.853275 0.158548 0.000000
3
Step 6-7 Interpolated 3/9
O -0.019776 -0.089140 0.000000
H -0.495398 0.781784 0.000000
H 0.854835 0.163696 0.000000
3
Step 6-7 Interpolated 4/9
O -0.026511 -0.083554 0.000000
H -0.496340 0.783750 0.000000
H 0.856395 0.168844 0.000000
3
Step 6-7 Interpolated 5/9
O -0.033245 -0.077968 0.000000
H -0.497282 0.785716 0.000000
H 0.857954 0.173992 0.000000
3
Step 6-7 Interpolated 6/9
O -0.039979 -0.072382 0.000000
H -0.498224 0.787682 0.000000
H 0.859514 0.179141 0.000000
3
Step 6-7 Interpolated 7/9
O -0.046713 -0.066796 0.000000
H -0.499166 0.789648 0.000000
H 0.861074 0.184289 0.000000
3
Step 6-7 Interpolated 8/9
O -0.053447 -0.061210 0.000000
H -0.500107 0.791613 0.000000
H 0.862634 0.189437 0.000000
3
Step 6-7 Interpolated 9/9
O -0.060181 -0.055624 0.000000
H -0.501049 0.793579 0.000000
H 0.864193 0.194586 0.000000
3
Step 7
O -0.066916 -0.050037 0.000000
H -0.501991 0.795545 0.000000
H 0.865753 0.199734 0.000000
3
Step 7-8 Interpolated 1/9
O -0.062498 -0.050625 0.000000
H -0.500309 0.795115 0.000000
H 0.871375 0.197375 0.000000
3
Step 7-8 Interpolated 2/9
O -0.058080 -0.051213 0.000000
H -0.498628 0.794686 0.000000
H 0.876997 0.195015 0.000000
3
Step 7-8 Interpolated 3/9
O -0.053662 -0.051800 0.000000
H -0.496946 0.794256 0.000000
H 0.882619 0.192655 0.000000
3
Step 7-8 Interpolated 4/9
O -0.049244 -0.052388 0.000000
H -0.495265 0.793827 0.000000
H 0.888241 0.190296 0.000000
3
Step 7-8 Interpolated 5/9
O -0.044826 -0.052976 0.000000
H -0.493583 0.793397 0.000000
H 0.893863 0.187937 0.000000
3
Step 7-8 Interpolated 6/9
O -0.040408 -0.053563 0.000000
H -0.491901 0.792968 0.000000
H 0.899484 0.185577 0.000000
3
Step 7-8 Interpolated 7/9
O -0.035990 -0.054151 0.000000
H -0.490220 0.792539 0.000000
H 0.905106 0.183217 0.000000
3
Step 7-8 Interpolated 8/9
O -0.031572 -0.054739 0.000000
H -0.488538 0.792109 0.000000
H 0.910728 0.180858 0.000000
3
Step 7-8 Interpolated 9/9
O -0.027154 -0.055326 0.000000
H -0.486857 0.791679 0.000000
H 0.916350 0.178499 0.000000
3
Step 8
O -0.022736 -0.055914 0.000000
H -0.485175 0.791250 0.000000
H 0.921972 0.176139 0.000000
3
Step 8-9 Interpolated 1/9
O -0.023357 -0.057528 0.000000
H -0.484192 0.790937 0.000000
H 0.920334 0.176722 0.000000
3
Step 8-9 Interpolated 2/9
O -0.023977 -0.059141 0.000000
H -0.483208 0.790625 0.000000
H 0.918696 0.177306 0.000000
3
Step 8-9 Interpolated 3/9
O -0.024597 -0.060755 0.000000
H -0.482225 0.790312 0.000000
H 0.917057 0.177889 0.000000
3
Step 8-9 Interpolated 4/9
O -0.025217 -0.062369 0.000000
H -0.481242 0.790000 0.000000
H 0.915419 0.178472 0.000000
3
Step 8-9 Interpolated 5/9
O -0.025837 -0.063983 0.000000
H -0.480259 0.789687 0.000000
H 0.913781 0.179055 0.000000
3
Step 8-9 Interpolated 6/9
O -0.026457 -0.065597 0.000000
H -0.479275 0.789375 0.000000
H 0.912143 0.179639 0.000000
3
Step 8-9 Interpolated 7/9
O -0.027077 -0.067211 0.000000
H -0.478292 0.789062 0.000000
H 0.910505 0.180222 0.000000
3
Step 8-9 Interpolated 8/9
O -0.027698 -0.068824 0.000000
H -0.477309 0.788750 0.000000
H 0.908866 0.180805 0.000000
3
Step 8-9 Interpolated 9/9
O -0.028318 -0.070438 0.000000
H -0.476325 0.788438 0.000000
H 0.907228 0.181389 0.000000
3
Step 9
O -0.028938 -0.072052 0.000000
H -0.475342 0.788125 0.000000
H 0.905590 0.181972 0.000000
3
Step 9-10 Interpolated 1/9
O -0.028619 -0.070669 0.000000
H -0.475559 0.789012 0.000000
H 0.905976 0.182614 0.000000
3
Step 9-10 Interpolated 2/9
O -0.028300 -0.069287 0.000000
H -0.475777 0.789899 0.000000
H 0.906361 0.183255 0.000000
3
Step 9-10 Interpolated 3/9
O -0.027981 -0.067904 0.000000
H -0.475994 0.790786 0.000000
H 0.906747 0.183897 0.000000
3
Step 9-10 Interpolated 4/9
O -0.027662 -0.066522 0.000000
H -0.476212 0.791673 0.000000
H 0.907132 0.184539 0.000000
3
Step 9-10 Interpolated 5/9
O -0.027343 -0.065139 0.000000
H -0.476430 0.792561 0.000000
H 0.907518 0.185180 0.000000
3
Step 9-10 Interpolated 6/9
O -0.027024 -0.063757 0.000000
H -0.476647 0.793448 0.000000
H 0.907904 0.185822 0.000000
3
Step 9-10 Interpolated 7/9
O -0.026705 -0.062374 0.000000
H -0.476865 0.794335 0.000000
H 0.908289 0.186464 0.000000
3
Step 9-10 Interpolated 8/9
O -0.026386 -0.060992 0.000000
H -0.477082 0.795222 0.000000
H 0.908675 0.187106 0.000000
3
Step 9-10 Interpolated 9/9
O -0.026067 -0.059609 0.000000
H -0.477300 0.796109 0.000000
H 0.909060 0.187747 0.000000
3
Step 10
O -0.025748 -0.058227 0.000000
H -0.477517 0.796996 0.000000
H 0.909446 0.188389 0.000000
3
Step 10-11 Interpolated 1/9
O -0.025875 -0.058543 0.000000
H -0.477629 0.796628 0.000000
H 0.909293 0.188045 0.000000
3
Step 10-11 Interpolated 2/9
O -0.026001 -0.058860 0.000000
H -0.477741 0.796260 0.000000
H 0.909141 0.187701 0.000000
3
Step 10-11 Interpolated 3/9
O -0.026127 -0.059177 0.000000
H -0.477853 0.795892 0.000000
H 0.908988 0.187357 0.000000
3
Step 10-11 Interpolated 4/9
O -0.026254 -0.059494 0.000000
H -0.477965 0.795524 0.000000
H 0.908836 0.187013 0.000000
3
Step 10-11 Interpolated 5/9
O -0.026380 -0.059811 0.000000
H -0.478077 0.795157 0.000000
H 0.908683 0.186669 0.000000
3
Step 10-11 Interpolated 6/9
O -0.026506 -0.060128 0.000000
H -0.478188 0.794789 0.000000
H 0.908530 0.186324 0.000000
3
Step 10-11 Interpolated 7/9
O -0.026633 -0.060445 0.000000
H -0.478300 0.794421 0.000000
H 0.908378 0.185980 0.000000
3
Step 10-11 Interpolated 8/9
O -0.026759 -0.060761 0.000000
H -0.478412 0.794053 0.000000
H 0.908225 0.185636 0.000000
3
Step 10-11 Interpolated 9/9
O -0.026886 -0.061078 0.000000
H -0.478524 0.793685 0.000000
H 0.908073 0.185292 0.000000
3
Step 11
O -0.027012 -0.061395 0.000000
H -0.478636 0.793317 0.000000
H 0.907920 0.184948 0.000000
3
Step 11-12 Interpolated 1/9
O -0.027009 -0.061415 0.000000
H -0.478638 0.793295 0.000000
H 0.907909 0.184925 0.000000
3
Step 11-12 Interpolated 2/9
O -0.027006 -0.061436 0.000000
H -0.478640 0.793273 0.000000
H 0.907899 0.184903 0.000000
3
Step 11-12 Interpolated 3/9
O -0.027003 -0.061456 0.000000
H -0.478642 0.793250 0.000000
H 0.907888 0.184880 0.000000
3
Step 11-12 Interpolated 4/9
O -0.027001 -0.061476 0.000000
H -0.478644 0.793228 0.000000
H 0.907877 0.184857 0.000000
3
Step 11-12 Interpolated 5/9
O -0.026998 -0.061497 0.000000
H -0.478646 0.793206 0.000000
H 0.907866 0.184835 0.000000
3
Step 11-12 Interpolated 6/9
O -0.026995 -0.061517 0.000000
H -0.478647 0.793184 0.000000
H 0.907856 0.184812 0.000000
3
Step 11-12 Interpolated 7/9
O -0.026992 -0.061537 0.000000
H -0.478649 0.793162 0.000000
H 0.907845 0.184789 0.000000
3
Step 11-12 Interpolated 8/9
O -0.026989 -0.061558 0.000000
H -0.478651 0.793139 0.000000
H 0.907834 0.184766 0.000000
3
Step 11-12 Interpolated 9/9
O -0.026987 -0.061578 0.000000
H -0.478653 0.793117 0.000000
H 0.907824 0.184744 0.000000
3
Step 12
O -0.026984 -0.061598 0.000000
H -0.478655 0.793095 0.000000
H 0.907813 0.184721 0.000000