6
Step 1
C 0.014196 -0.081804 -0.215600
O -1.263270 -0.705816 0.008925
H -1.665680 -0.711588 -0.842124
O -0.005396 1.565940 -0.071607
O 1.295490 -0.661626 0.235115
H 1.070870 -1.464770 0.672589
6
Step 1-2 Interpolated 1/9
C 0.014702 -0.076008 -0.210662
O -1.253252 -0.704811 0.011378
H -1.658971 -0.709911 -0.840516
O -0.005959 1.550009 -0.073889
O 1.287636 -0.656108 0.232811
H 1.062053 -1.462834 0.668176
6
Step 1-2 Interpolated 2/9
C 0.015208 -0.070212 -0.205723
O -1.243234 -0.703806 0.013831
H -1.652262 -0.708234 -0.838908
O -0.006522 1.534078 -0.076171
O 1.279782 -0.650590 0.230507
H 1.053237 -1.460898 0.663763
6
Step 1-2 Interpolated 3/9
C 0.015714 -0.064416 -0.200785
O -1.233216 -0.702802 0.016283
H -1.645553 -0.706557 -0.837301
O -0.007085 1.518147 -0.078453
O 1.271928 -0.645072 0.228203
H 1.044420 -1.458962 0.659351
6
Step 1-2 Interpolated 4/9
C 0.016220 -0.058620 -0.195846
O -1.223198 -0.701797 0.018736
H -1.638844 -0.704880 -0.835693
O -0.007648 1.502216 -0.080736
O 1.264074 -0.639554 0.225899
H 1.035603 -1.457026 0.654938
6
Step 1-2 Interpolated 5/9
C 0.016726 -0.052824 -0.190908
O -1.213180 -0.700792 0.021189
H -1.632135 -0.703202 -0.834085
O -0.008211 1.486285 -0.083018
O 1.256220 -0.634035 0.223595
H 1.026787 -1.455090 0.650525
6
Step 1-2 Interpolated 6/9
C 0.017232 -0.047028 -0.185969
O -1.203162 -0.699787 0.023642
H -1.625426 -0.701525 -0.832477
O -0.008774 1.470354 -0.085300
O 1.248366 -0.628517 0.221291
H 1.017970 -1.453154 0.646112
6
Step 1-2 Interpolated 7/9
C 0.017738 -0.041232 -0.181031
O -1.193144 -0.698782 0.026095
H -1.618717 -0.699848 -0.830869
O -0.009337 1.454423 -0.087582
O 1.240512 -0.622999 0.218987
H 1.009153 -1.451218 0.641699
6
Step 1-2 Interpolated 8/9
C 0.018244 -0.035436 -0.176092
O -1.183126 -0.697778 0.028547
H -1.612008 -0.698171 -0.829262
O -0.009900 1.438492 -0.089864
O 1.232658 -0.617481 0.216683
H 1.000336 -1.449282 0.637287
6
Step 1-2 Interpolated 9/9
C 0.018750 -0.029640 -0.171154
O -1.173108 -0.696773 0.031000
H -1.605299 -0.696494 -0.827654
O -0.010463 1.422561 -0.092147
O 1.224804 -0.611963 0.214379
H 0.991520 -1.447346 0.632874
6
Step 2
C 0.019256 -0.023844 -0.166215
O -1.163090 -0.695768 0.033453
H -1.598590 -0.694817 -0.826046
O -0.011026 1.406630 -0.094429
O 1.216950 -0.606445 0.212075
H 0.982703 -1.445410 0.628461
6
Step 2-3 Interpolated 1/9
C 0.019281 -0.010547 -0.157311
O -1.152417 -0.690453 0.034682
H -1.591597 -0.691545 -0.824839
O -0.010905 1.376361 -0.097665
O 1.206468 -0.596536 0.208831
H 0.972514 -1.439454 0.621441
6
Step 2-3 Interpolated 2/9
C 0.019305 0.002750 -0.148407
O -1.141744 -0.685139 0.035912
H -1.584604 -0.688272 -0.823631
O -0.010784 1.346092 -0.100901
O 1.195986 -0.586626 0.205587
H 0.962325 -1.433498 0.614422
6
Step 2-3 Interpolated 3/9
C 0.019330 0.016047 -0.139503
O -1.131071 -0.679824 0.037141
H -1.577611 -0.685000 -0.822424
O -0.010664 1.315823 -0.104137
O 1.185504 -0.576717 0.202342
H 0.952137 -1.427542 0.607402
6
Step 2-3 Interpolated 4/9
C 0.019355 0.029344 -0.130598
O -1.120398 -0.674509 0.038371
H -1.570618 -0.681728 -0.821216
O -0.010543 1.285554 -0.107373
O 1.175022 -0.566808 0.199098
H 0.941948 -1.421586 0.600383
6
Step 2-3 Interpolated 5/9
C 0.019380 0.042642 -0.121694
O -1.109725 -0.669195 0.039600
H -1.563625 -0.678455 -0.820009
O -0.010422 1.255285 -0.110609
O 1.164540 -0.556898 0.195854
H 0.931759 -1.415630 0.593363
6
Step 2-3 Interpolated 6/9
C 0.019404 0.055939 -0.112790
O -1.099052 -0.663880 0.040829
H -1.556632 -0.675183 -0.818802
O -0.010302 1.225016 -0.113845
O 1.154058 -0.546989 0.192610
H 0.921570 -1.409674 0.586343
6
Step 2-3 Interpolated 7/9
C 0.019429 0.069236 -0.103886
O -1.088379 -0.658565 0.042059
H -1.549639 -0.671911 -0.817594
O -0.010181 1.194747 -0.117082
O 1.143576 -0.537080 0.189366
H 0.911381 -1.403718 0.579324
6
Step 2-3 Interpolated 8/9
C 0.019454 0.082533 -0.094982
O -1.077706 -0.653250 0.043288
H -1.542646 -0.668639 -0.816387
O -0.010060 1.164478 -0.120318
O 1.133094 -0.527171 0.186121
H 0.901193 -1.397762 0.572304
6
Step 2-3 Interpolated 9/9
C 0.019478 0.095830 -0.086078
O -1.067033 -0.647936 0.044518
H -1.535653 -0.665366 -0.815179
O -0.009940 1.134209 -0.123554
O 1.122612 -0.517261 0.182877
H 0.891004 -1.391806 0.565285
6
Step 3
C 0.019503 0.109127 -0.077173
O -1.056360 -0.642621 0.045747
H -1.528660 -0.662094 -0.813972
O -0.009819 1.103940 -0.126790
O 1.112130 -0.507352 0.179633
H 0.880815 -1.385850 0.558265
6
Step 3-4 Interpolated 1/9
C 0.019072 0.110419 -0.077474
O -1.057949 -0.642455 0.044972
H -1.529952 -0.662010 -0.814625
O -0.010349 1.118112 -0.128536
O 1.112724 -0.508117 0.179645
H 0.881004 -1.386373 0.557923
6
Step 3-4 Interpolated 2/9
C 0.018642 0.111712 -0.077774
O -1.059538 -0.642289 0.044197
H -1.531244 -0.661925 -0.815279
O -0.010880 1.132284 -0.130283
O 1.113318 -0.508883 0.179658
H 0.881192 -1.386896 0.557580
6
Step 3-4 Interpolated 3/9
C 0.018211 0.113004 -0.078074
O -1.061127 -0.642123 0.043422
H -1.532536 -0.661841 -0.815932
O -0.011410 1.146456 -0.132029
O 1.113912 -0.509648 0.179670
H 0.881381 -1.387419 0.557238
6
Step 3-4 Interpolated 4/9
C 0.017780 0.114297 -0.078374
O -1.062716 -0.641957 0.042647
H -1.533828 -0.661757 -0.816585
O -0.011940 1.160628 -0.133775
O 1.114506 -0.510414 0.179682
H 0.881569 -1.387942 0.556896
6
Step 3-4 Interpolated 5/9
C 0.017350 0.115589 -0.078674
O -1.064305 -0.641791 0.041872
H -1.535120 -0.661672 -0.817238
O -0.012471 1.174800 -0.135522
O 1.115100 -0.511179 0.179694
H 0.881758 -1.388465 0.556553
6
Step 3-4 Interpolated 6/9
C 0.016919 0.116881 -0.078975
O -1.065894 -0.641625 0.041097
H -1.536412 -0.661588 -0.817892
O -0.013001 1.188972 -0.137268
O 1.115694 -0.511944 0.179707
H 0.881947 -1.388988 0.556211
6
Step 3-4 Interpolated 7/9
C 0.016488 0.118174 -0.079275
O -1.067483 -0.641459 0.040323
H -1.537704 -0.661504 -0.818545
O -0.013531 1.203144 -0.139014
O 1.116288 -0.512710 0.179719
H 0.882135 -1.389511 0.555869
6
Step 3-4 Interpolated 8/9
C 0.016057 0.119466 -0.079575
O -1.069072 -0.641293 0.039548
H -1.538996 -0.661420 -0.819198
O -0.014062 1.217316 -0.140760
O 1.116882 -0.513475 0.179731
H 0.882324 -1.390034 0.555527
6
Step 3-4 Interpolated 9/9
C 0.015627 0.120759 -0.079875
O -1.070661 -0.641127 0.038773
H -1.540288 -0.661335 -0.819852
O -0.014592 1.231488 -0.142507
O 1.117476 -0.514241 0.179744
H 0.882512 -1.390557 0.555184
6
Step 4
C 0.015196 0.122051 -0.080175
O -1.072250 -0.640961 0.037998
H -1.541580 -0.661251 -0.820505
O -0.015122 1.245660 -0.144253
O 1.118070 -0.515006 0.179756
H 0.882701 -1.391080 0.554842
6
Step 4-5 Interpolated 1/9
C 0.014297 0.122640 -0.074796
O -1.073921 -0.644297 0.037593
H -1.542388 -0.662227 -0.821070
O -0.015926 1.249461 -0.148737
O 1.119698 -0.518559 0.181489
H 0.885165 -1.395645 0.553707
6
Step 4-5 Interpolated 2/9
C 0.013398 0.123228 -0.069416
O -1.075592 -0.647632 0.037188
H -1.543196 -0.663203 -0.821635
O -0.016730 1.253262 -0.153220
O 1.121326 -0.522113 0.183223
H 0.887629 -1.400210 0.552572
6
Step 4-5 Interpolated 3/9
C 0.012498 0.123817 -0.064036
O -1.077263 -0.650968 0.036783
H -1.544004 -0.664178 -0.822201
O -0.017533 1.257063 -0.157704
O 1.122954 -0.525666 0.184956
H 0.890093 -1.404775 0.551437
6
Step 4-5 Interpolated 4/9
C 0.011599 0.124405 -0.058656
O -1.078934 -0.654303 0.036378
H -1.544812 -0.665154 -0.822766
O -0.018337 1.260864 -0.162188
O 1.124582 -0.529220 0.186690
H 0.892557 -1.409340 0.550302
6
Step 4-5 Interpolated 5/9
C 0.010700 0.124994 -0.053277
O -1.080605 -0.657639 0.035973
H -1.545620 -0.666130 -0.823331
O -0.019141 1.264665 -0.166672
O 1.126210 -0.532773 0.188423
H 0.895021 -1.413905 0.549168
6
Step 4-5 Interpolated 6/9
C 0.009801 0.125583 -0.047897
O -1.082276 -0.660975 0.035568
H -1.546428 -0.667106 -0.823896
O -0.019945 1.268466 -0.171155
O 1.127838 -0.536326 0.190157
H 0.897486 -1.418470 0.548033
6
Step 4-5 Interpolated 7/9
C 0.008902 0.126171 -0.042517
O -1.083947 -0.664310 0.035164
H -1.547236 -0.668082 -0.824461
O -0.020748 1.272267 -0.175639
O 1.129466 -0.539880 0.191890
H 0.899950 -1.423035 0.546898
6
Step 4-5 Interpolated 8/9
C 0.008003 0.126760 -0.037137
O -1.085618 -0.667646 0.034759
H -1.548044 -0.669057 -0.825027
O -0.021552 1.276068 -0.180123
O 1.131094 -0.543433 0.193624
H 0.902414 -1.427600 0.545763
6
Step 4-5 Interpolated 9/9
C 0.007103 0.127348 -0.031757
O -1.087289 -0.670981 0.034354
H -1.548852 -0.670033 -0.825592
O -0.022356 1.279869 -0.184606
O 1.132722 -0.546987 0.195357
H 0.904878 -1.432165 0.544628
6
Step 5
C 0.006204 0.127937 -0.026378
O -1.088960 -0.674317 0.033949
H -1.549660 -0.671009 -0.826157
O -0.023160 1.283670 -0.189090
O 1.134350 -0.550540 0.197091
H 0.907342 -1.436730 0.543493
6
Step 5-6 Interpolated 1/9
C 0.007726 0.124566 -0.027479
O -1.083454 -0.684674 0.026325
H -1.558675 -0.658331 -0.819802
O -0.025142 1.280305 -0.197370
O 1.135775 -0.547401 0.211511
H 0.911990 -1.438857 0.539049
6
Step 5-6 Interpolated 2/9
C 0.009248 0.121195 -0.028581
O -1.077948 -0.695032 0.018702
H -1.567690 -0.645653 -0.813446
O -0.027125 1.276940 -0.205650
O 1.137200 -0.544262 0.225931
H 0.916638 -1.440984 0.534605
6
Step 5-6 Interpolated 3/9
C 0.010770 0.117825 -0.029682
O -1.072442 -0.705389 0.011078
H -1.576705 -0.632975 -0.807091
O -0.029108 1.273575 -0.213931
O 1.138625 -0.541123 0.240351
H 0.921286 -1.443111 0.530161
6
Step 5-6 Interpolated 4/9
C 0.012292 0.114454 -0.030784
O -1.066936 -0.715746 0.003455
H -1.585720 -0.620297 -0.800735
O -0.031090 1.270210 -0.222211
O 1.140050 -0.537984 0.254771
H 0.925934 -1.445238 0.525717
6
Step 5-6 Interpolated 5/9
C 0.013814 0.111083 -0.031885
O -1.061430 -0.726104 -0.004169
H -1.594735 -0.607619 -0.794380
O -0.033073 1.266845 -0.230491
O 1.141475 -0.534846 0.269191
H 0.930581 -1.447365 0.521273
6
Step 5-6 Interpolated 6/9
C 0.015336 0.107712 -0.032987
O -1.055924 -0.736461 -0.011792
H -1.603750 -0.594942 -0.788024
O -0.035056 1.263480 -0.238771
O 1.142900 -0.531707 0.283612
H 0.935229 -1.449492 0.516830
6
Step 5-6 Interpolated 7/9
C 0.016858 0.104342 -0.034088
O -1.050418 -0.746818 -0.019416
H -1.612765 -0.582264 -0.781668
O -0.037039 1.260115 -0.247051
O 1.144325 -0.528568 0.298032
H 0.939877 -1.451619 0.512386
6
Step 5-6 Interpolated 8/9
C 0.018379 0.100971 -0.035189
O -1.044912 -0.757175 -0.027039
H -1.621780 -0.569586 -0.775313
O -0.039021 1.256750 -0.255332
O 1.145750 -0.525429 0.312452
H 0.944525 -1.453746 0.507942
6
Step 5-6 Interpolated 9/9
C 0.019901 0.097600 -0.036291
O -1.039406 -0.767533 -0.034663
H -1.630795 -0.556908 -0.768957
O -0.041004 1.253385 -0.263612
O 1.147175 -0.522290 0.326872
H 0.949173 -1.455873 0.503498
6
Step 6
C 0.021423 0.094229 -0.037392
O -1.033900 -0.777890 -0.042286
H -1.639810 -0.544230 -0.762602
O -0.042987 1.250020 -0.271892
O 1.148600 -0.519151 0.341292
H 0.953821 -1.458000 0.499054
6
Step 6-7 Interpolated 1/9
C 0.021164 0.095025 -0.039349
O -1.025150 -0.785185 -0.061797
H -1.648261 -0.530316 -0.745087
O -0.046084 1.251893 -0.277951
O 1.145134 -0.515580 0.350939
H 0.953447 -1.454996 0.502134
6
Step 6-7 Interpolated 2/9
C 0.020904 0.095821 -0.041305
O -1.016399 -0.792480 -0.081307
H -1.656712 -0.516401 -0.727572
O -0.049181 1.253766 -0.284010
O 1.141668 -0.512009 0.360585
H 0.953073 -1.451992 0.505214
6
Step 6-7 Interpolated 3/9
C 0.020644 0.096617 -0.043261
O -1.007649 -0.799774 -0.100818
H -1.665163 -0.502487 -0.710057
O -0.052278 1.255639 -0.290069
O 1.138202 -0.508439 0.370232
H 0.952698 -1.448988 0.508294
6
Step 6-7 Interpolated 4/9
C 0.020384 0.097413 -0.045217
O -0.998899 -0.807069 -0.120329
H -1.673614 -0.488573 -0.692542
O -0.055375 1.257512 -0.296128
O 1.134736 -0.504868 0.379879
H 0.952324 -1.445984 0.511374
6
Step 6-7 Interpolated 5/9
C 0.020125 0.098209 -0.047173
O -0.990149 -0.814364 -0.139840
H -1.682065 -0.474658 -0.675028
O -0.058472 1.259385 -0.302187
O 1.131270 -0.501297 0.389525
H 0.951950 -1.442980 0.514454
6
Step 6-7 Interpolated 6/9
C 0.019865 0.099005 -0.049129
O -0.981398 -0.821659 -0.159350
H -1.690516 -0.460744 -0.657513
O -0.061569 1.261258 -0.308245
O 1.127804 -0.497726 0.399172
H 0.951576 -1.439976 0.517533
6
Step 6-7 Interpolated 7/9
C 0.019605 0.099801 -0.051085
O -0.972648 -0.828954 -0.178861
H -1.698967 -0.446830 -0.639998
O -0.064666 1.263131 -0.314304
O 1.124338 -0.494155 0.408819
H 0.951202 -1.436972 0.520613
6
Step 6-7 Interpolated 8/9
C 0.019346 0.100597 -0.053041
O -0.963898 -0.836248 -0.198372
H -1.707418 -0.432916 -0.622483
O -0.067763 1.265004 -0.320363
O 1.120872 -0.490585 0.418466
H 0.950827 -1.433968 0.523693
6
Step 6-7 Interpolated 9/9
C 0.019086 0.101393 -0.054997
O -0.955147 -0.843543 -0.217882
H -1.715869 -0.419001 -0.604968
O -0.070860 1.266877 -0.326422
O 1.117406 -0.487014 0.428112
H 0.950453 -1.430964 0.526773
6
Step 7
C 0.018826 0.102189 -0.056954
O -0.946397 -0.850838 -0.237393
H -1.724320 -0.405087 -0.587453
O -0.073957 1.268750 -0.332481
O 1.113940 -0.483443 0.437759
H 0.950079 -1.427960 0.529853
6
Step 7-8 Interpolated 1/9
C 0.017253 0.103744 -0.052656
O -0.952957 -0.843633 -0.223726
H -1.724534 -0.402963 -0.591562
O -0.076804 1.268948 -0.325347
O 1.114297 -0.480506 0.439802
H 0.951796 -1.425825 0.534447
6
Step 7-8 Interpolated 2/9
C 0.015680 0.105299 -0.048359
O -0.959518 -0.836428 -0.210060
H -1.724748 -0.400839 -0.595671
O -0.079651 1.269146 -0.318213
O 1.114654 -0.477569 0.441844
H 0.953512 -1.423690 0.539041
6
Step 7-8 Interpolated 3/9
C 0.014107 0.106854 -0.044061
O -0.966078 -0.829223 -0.196393
H -1.724962 -0.398715 -0.599780
O -0.082498 1.269344 -0.311080
O 1.115011 -0.474632 0.443887
H 0.955229 -1.421555 0.543635
6
Step 7-8 Interpolated 4/9
C 0.012534 0.108409 -0.039764
O -0.972638 -0.822018 -0.182727
H -1.725176 -0.396591 -0.603889
O -0.085345 1.269542 -0.303946
O 1.115368 -0.471695 0.445930
H 0.956946 -1.419420 0.548229
6
Step 7-8 Interpolated 5/9
C 0.010961 0.109964 -0.035466
O -0.979199 -0.814813 -0.169060
H -1.725390 -0.394467 -0.607997
O -0.088192 1.269740 -0.296812
O 1.115725 -0.468757 0.447972
H 0.958662 -1.417285 0.552822
6
Step 7-8 Interpolated 6/9
C 0.009388 0.111519 -0.031169
O -0.985759 -0.807609 -0.155393
H -1.725604 -0.392343 -0.612106
O -0.091039 1.269938 -0.289678
O 1.116082 -0.465820 0.450015
H 0.960379 -1.415150 0.557416
6
Step 7-8 Interpolated 7/9
C 0.007815 0.113074 -0.026871
O -0.992319 -0.800404 -0.141727
H -1.725818 -0.390219 -0.616215
O -0.093886 1.270136 -0.282544
O 1.116439 -0.462883 0.452058
H 0.962096 -1.413015 0.562010
6
Step 7-8 Interpolated 8/9
C 0.006242 0.114629 -0.022574
O -0.998879 -0.793199 -0.128060
H -1.726032 -0.388095 -0.620324
O -0.096733 1.270334 -0.275411
O 1.116796 -0.459946 0.454101
H 0.963813 -1.410880 0.566604
6
Step 7-8 Interpolated 9/9
C 0.004669 0.116184 -0.018276
O -1.005440 -0.785994 -0.114394
H -1.726246 -0.385971 -0.624433
O -0.099580 1.270532 -0.268277
O 1.117153 -0.457009 0.456143
H 0.965529 -1.408745 0.571198
6
Step 8
C 0.003096 0.117739 -0.013979
O -1.012000 -0.778789 -0.100727
H -1.726460 -0.383847 -0.628542
O -0.102427 1.270730 -0.261143
O 1.117510 -0.454072 0.458186
H 0.967246 -1.406610 0.575792
6
Step 8-9 Interpolated 1/9
C 0.002579 0.118028 -0.012669
O -1.006855 -0.782170 -0.104921
H -1.721702 -0.382556 -0.627092
O -0.102720 1.273031 -0.267062
O 1.116350 -0.455648 0.456230
H 0.965881 -1.407606 0.572331
6
Step 8-9 Interpolated 2/9
C 0.002062 0.118318 -0.011359
O -1.001710 -0.785552 -0.109115
H -1.716944 -0.381265 -0.625643
O -0.103013 1.275332 -0.272982
O 1.115190 -0.457223 0.454275
H 0.964516 -1.408602 0.568870
6
Step 8-9 Interpolated 3/9
C 0.001546 0.118607 -0.010049
O -0.996565 -0.788933 -0.113309
H -1.712186 -0.379974 -0.624193
O -0.103306 1.277633 -0.278901
O 1.114030 -0.458799 0.452319
H 0.963152 -1.409598 0.565409
6
Step 8-9 Interpolated 4/9
C 0.001029 0.118897 -0.008740
O -0.991420 -0.792315 -0.117503
H -1.707428 -0.378683 -0.622744
O -0.103599 1.279934 -0.284820
O 1.112870 -0.460375 0.450363
H 0.961787 -1.410594 0.561948
6
Step 8-9 Interpolated 5/9
C 0.000512 0.119186 -0.007430
O -0.986274 -0.795696 -0.121697
H -1.702670 -0.377393 -0.621294
O -0.103891 1.282235 -0.290740
O 1.111710 -0.461950 0.448407
H 0.960422 -1.411590 0.558486
6
Step 8-9 Interpolated 6/9
C -0.000005 0.119475 -0.006120
O -0.981129 -0.799077 -0.125892
H -1.697912 -0.376102 -0.619844
O -0.104184 1.284536 -0.296659
O 1.110550 -0.463526 0.446452
H 0.959057 -1.412586 0.555025
6
Step 8-9 Interpolated 7/9
C -0.000522 0.119765 -0.004810
O -0.975984 -0.802459 -0.130086
H -1.693154 -0.374811 -0.618395
O -0.104477 1.286837 -0.302578
O 1.109390 -0.465102 0.444496
H 0.957692 -1.413582 0.551564
6
Step 8-9 Interpolated 8/9
C -0.001039 0.120054 -0.003500
O -0.970839 -0.805840 -0.134280
H -1.688396 -0.373520 -0.616945
O -0.104770 1.289138 -0.308497
O 1.108230 -0.466678 0.442540
H 0.956328 -1.414578 0.548103
6
Step 8-9 Interpolated 9/9
C -0.001556 0.120344 -0.002190
O -0.965694 -0.809222 -0.138474
H -1.683638 -0.372229 -0.615496
O -0.105063 1.291439 -0.314417
O 1.107070 -0.468253 0.440585
H 0.954963 -1.415574 0.544642
6
Step 9
C -0.002073 0.120633 -0.000880
O -0.960549 -0.812603 -0.142668
H -1.678880 -0.370938 -0.614046
O -0.105356 1.293740 -0.320336
O 1.105910 -0.469829 0.438629
H 0.953598 -1.416570 0.541181
6
Step 9-10 Interpolated 1/9
C -0.001497 0.120656 -0.000807
O -0.961854 -0.811865 -0.142945
H -1.681011 -0.370225 -0.613620
O -0.104316 1.291948 -0.318643
O 1.107123 -0.468638 0.439966
H 0.955328 -1.415768 0.542515
6
Step 9-10 Interpolated 2/9
C -0.000922 0.120679 -0.000734
O -0.963160 -0.811127 -0.143222
H -1.683142 -0.369513 -0.613193
O -0.103275 1.290156 -0.316950
O 1.108336 -0.467446 0.441303
H 0.957057 -1.414966 0.543848
6
Step 9-10 Interpolated 3/9
C -0.000346 0.120702 -0.000661
O -0.964465 -0.810389 -0.143499
H -1.685273 -0.368800 -0.612767
O -0.102235 1.288364 -0.315257
O 1.109549 -0.466255 0.442640
H 0.958787 -1.414164 0.545182
6
Step 9-10 Interpolated 4/9
C 0.000229 0.120725 -0.000588
O -0.965770 -0.809651 -0.143776
H -1.687404 -0.368087 -0.612341
O -0.101194 1.286572 -0.313564
O 1.110762 -0.465064 0.443977
H 0.960517 -1.413362 0.546515
6
Step 9-10 Interpolated 5/9
C 0.000805 0.120749 -0.000515
O -0.967075 -0.808912 -0.144054
H -1.689535 -0.367374 -0.611914
O -0.100154 1.284780 -0.311871
O 1.111975 -0.463873 0.445315
H 0.962247 -1.412560 0.547849
6
Step 9-10 Interpolated 6/9
C 0.001381 0.120772 -0.000442
O -0.968381 -0.808174 -0.144331
H -1.691666 -0.366662 -0.611488
O -0.099114 1.282988 -0.310178
O 1.113188 -0.462681 0.446652
H 0.963976 -1.411758 0.549183
6
Step 9-10 Interpolated 7/9
C 0.001956 0.120795 -0.000369
O -0.969686 -0.807436 -0.144608
H -1.693797 -0.365949 -0.611062
O -0.098073 1.281196 -0.308485
O 1.114401 -0.461490 0.447989
H 0.965706 -1.410956 0.550516
6
Step 9-10 Interpolated 8/9
C 0.002532 0.120818 -0.000297
O -0.970991 -0.806698 -0.144885
H -1.695928 -0.365236 -0.610636
O -0.097033 1.279404 -0.306792
O 1.115614 -0.460299 0.449326
H 0.967436 -1.410154 0.551850
6
Step 9-10 Interpolated 9/9
C 0.003107 0.120841 -0.000224
O -0.972297 -0.805960 -0.145162
H -1.698059 -0.364524 -0.610209
O -0.095993 1.277612 -0.305099
O 1.116827 -0.459107 0.450663
H 0.969165 -1.409352 0.553183
6
Step 10
C 0.003683 0.120864 -0.000151
O -0.973602 -0.805222 -0.145439
H -1.700190 -0.363811 -0.609783
O -0.094952 1.275820 -0.303406
O 1.118040 -0.457916 0.452000
H 0.970895 -1.408550 0.554517
6
Step 10-11 Interpolated 1/9
C 0.004539 0.119954 -0.003438
O -0.972590 -0.805932 -0.150905
H -1.703372 -0.362296 -0.605747
O -0.094954 1.275729 -0.302209
O 1.118175 -0.457171 0.452956
H 0.971100 -1.407813 0.557150
6
Step 10-11 Interpolated 2/9
C 0.005396 0.119044 -0.006725
O -0.971577 -0.806641 -0.156371
H -1.706554 -0.360781 -0.601712
O -0.094957 1.275638 -0.301013
O 1.118310 -0.456427 0.453912
H 0.971306 -1.407076 0.559784
6
Step 10-11 Interpolated 3/9
C 0.006252 0.118134 -0.010012
O -0.970565 -0.807350 -0.161838
H -1.709736 -0.359266 -0.597676
O -0.094959 1.275547 -0.299816
O 1.118445 -0.455682 0.454868
H 0.971511 -1.406339 0.562417
6
Step 10-11 Interpolated 4/9
C 0.007109 0.117224 -0.013299
O -0.969552 -0.808060 -0.167304
H -1.712918 -0.357751 -0.593641
O -0.094961 1.275456 -0.298620
O 1.118580 -0.454938 0.455824
H 0.971716 -1.405602 0.565050
6
Step 10-11 Interpolated 5/9
C 0.007966 0.116314 -0.016586
O -0.968540 -0.808769 -0.172770
H -1.716100 -0.356236 -0.589606
O -0.094963 1.275365 -0.297423
O 1.118715 -0.454193 0.456780
H 0.971921 -1.404865 0.567684
6
Step 10-11 Interpolated 6/9
C 0.008822 0.115404 -0.019873
O -0.967528 -0.809479 -0.178236
H -1.719282 -0.354721 -0.585570
O -0.094965 1.275274 -0.296226
O 1.118850 -0.453448 0.457736
H 0.972127 -1.404128 0.570317
6
Step 10-11 Interpolated 7/9
C 0.009679 0.114494 -0.023160
O -0.966515 -0.810188 -0.183702
H -1.722464 -0.353206 -0.581535
O -0.094967 1.275183 -0.295030
O 1.118985 -0.452704 0.458692
H 0.972332 -1.403391 0.572950
6
Step 10-11 Interpolated 8/9
C 0.010535 0.113584 -0.026447
O -0.965503 -0.810898 -0.189169
H -1.725646 -0.351691 -0.577499
O -0.094969 1.275092 -0.293833
O 1.119120 -0.451959 0.459648
H 0.972537 -1.402654 0.575583
6
Step 10-11 Interpolated 9/9
C 0.011392 0.112674 -0.029734
O -0.964490 -0.811607 -0.194635
H -1.728828 -0.350176 -0.573464
O -0.094972 1.275001 -0.292637
O 1.119255 -0.451215 0.460604
H 0.972743 -1.401917 0.578217
6
Step 11
C 0.012248 0.111764 -0.033021
O -0.963478 -0.812317 -0.200101
H -1.732010 -0.348661 -0.569428
O -0.094974 1.274910 -0.291440
O 1.119390 -0.450470 0.461560
H 0.972948 -1.401180 0.580850
6
Step 11-12 Interpolated 1/9
C 0.011834 0.112365 -0.031922
O -0.963545 -0.812110 -0.199358
H -1.732674 -0.348591 -0.567415
O -0.095470 1.275526 -0.289794
O 1.118767 -0.450223 0.462566
H 0.971761 -1.400709 0.582708
6
Step 11-12 Interpolated 2/9
C 0.011420 0.112966 -0.030824
O -0.963612 -0.811903 -0.198616
H -1.733338 -0.348522 -0.565401
O -0.095966 1.276142 -0.288149
O 1.118144 -0.449977 0.463572
H 0.970575 -1.400238 0.584566
6
Step 11-12 Interpolated 3/9
C 0.011005 0.113568 -0.029725
O -0.963680 -0.811696 -0.197874
H -1.734002 -0.348452 -0.563388
O -0.096463 1.276758 -0.286503
O 1.117521 -0.449730 0.464578
H 0.969388 -1.399767 0.586423
6
Step 11-12 Interpolated 4/9
C 0.010591 0.114169 -0.028627
O -0.963747 -0.811489 -0.197131
H -1.734666 -0.348382 -0.561374
O -0.096959 1.277374 -0.284858
O 1.116898 -0.449484 0.465584
H 0.968202 -1.399296 0.588281
6
Step 11-12 Interpolated 5/9
C 0.010177 0.114770 -0.027528
O -0.963814 -0.811282 -0.196388
H -1.735330 -0.348313 -0.559361
O -0.097455 1.277990 -0.283212
O 1.116275 -0.449237 0.466590
H 0.967015 -1.398825 0.590139
6
Step 11-12 Interpolated 6/9
C 0.009763 0.115371 -0.026429
O -0.963881 -0.811075 -0.195646
H -1.735994 -0.348243 -0.557347
O -0.097952 1.278606 -0.281567
O 1.115652 -0.448991 0.467596
H 0.965828 -1.398354 0.591997
6
Step 11-12 Interpolated 7/9
C 0.009348 0.115972 -0.025331
O -0.963948 -0.810868 -0.194903
H -1.736658 -0.348173 -0.555334
O -0.098448 1.279222 -0.279921
O 1.115029 -0.448744 0.468602
H 0.964642 -1.397883 0.593855
6
Step 11-12 Interpolated 8/9
C 0.008934 0.116574 -0.024232
O -0.964016 -0.810661 -0.194161
H -1.737322 -0.348103 -0.553320
O -0.098944 1.279838 -0.278276
O 1.114406 -0.448498 0.469608
H 0.963455 -1.397412 0.595712
6
Step 11-12 Interpolated 9/9
C 0.008520 0.117175 -0.023134
O -0.964083 -0.810454 -0.193418
H -1.737986 -0.348034 -0.551307
O -0.099441 1.280454 -0.276631
O 1.113783 -0.448251 0.470614
H 0.962269 -1.396941 0.597570
6
Step 12
C 0.008106 0.117776 -0.022035
O -0.964150 -0.810247 -0.192676
H -1.738650 -0.347964 -0.549293
O -0.099937 1.281070 -0.274985
O 1.113160 -0.448005 0.471620
H 0.961082 -1.396470 0.599428
6
Step 12-13 Interpolated 1/9
C 0.007942 0.117721 -0.021701
O -0.964420 -0.810224 -0.192273
H -1.738874 -0.348067 -0.549173
O -0.100003 1.281054 -0.274850
O 1.112988 -0.447978 0.472088
H 0.961024 -1.396541 0.599425
6
Step 12-13 Interpolated 2/9
C 0.007778 0.117666 -0.021367
O -0.964691 -0.810201 -0.191870
H -1.739098 -0.348170 -0.549054
O -0.100069 1.281038 -0.274714
O 1.112816 -0.447952 0.472556
H 0.960966 -1.396612 0.599422
6
Step 12-13 Interpolated 3/9
C 0.007615 0.117611 -0.021033
O -0.964962 -0.810178 -0.191467
H -1.739322 -0.348273 -0.548934
O -0.100135 1.281022 -0.274579
O 1.112644 -0.447925 0.473024
H 0.960909 -1.396683 0.599419
6
Step 12-13 Interpolated 4/9
C 0.007451 0.117556 -0.020699
O -0.965232 -0.810155 -0.191064
H -1.739546 -0.348376 -0.548814
O -0.100201 1.281006 -0.274444
O 1.112472 -0.447898 0.473492
H 0.960851 -1.396754 0.599416
6
Step 12-13 Interpolated 5/9
C 0.007288 0.117502 -0.020364
O -0.965502 -0.810133 -0.190661
H -1.739770 -0.348479 -0.548695
O -0.100266 1.280990 -0.274308
O 1.112300 -0.447871 0.473961
H 0.960793 -1.396825 0.599412
6
Step 12-13 Interpolated 6/9
C 0.007124 0.117447 -0.020030
O -0.965773 -0.810110 -0.190259
H -1.739994 -0.348583 -0.548575
O -0.100332 1.280974 -0.274173
O 1.112128 -0.447845 0.474429
H 0.960735 -1.396896 0.599409
6
Step 12-13 Interpolated 7/9
C 0.006960 0.117392 -0.019696
O -0.966043 -0.810087 -0.189856
H -1.740218 -0.348686 -0.548455
O -0.100398 1.280958 -0.274038
O 1.111956 -0.447818 0.474897
H 0.960677 -1.396967 0.599406
6
Step 12-13 Interpolated 8/9
C 0.006797 0.117337 -0.019362
O -0.966314 -0.810064 -0.189453
H -1.740442 -0.348789 -0.548335
O -0.100464 1.280942 -0.273903
O 1.111784 -0.447791 0.475365
H 0.960620 -1.397038 0.599403
6
Step 12-13 Interpolated 9/9
C 0.006633 0.117282 -0.019028
O -0.966584 -0.810041 -0.189050
H -1.740666 -0.348892 -0.548216
O -0.100530 1.280926 -0.273767
O 1.111612 -0.447765 0.475833
H 0.960562 -1.397109 0.599400
6
Step 13
C 0.006470 0.117227 -0.018694
O -0.966855 -0.810018 -0.188647
H -1.740890 -0.348995 -0.548096
O -0.100596 1.280910 -0.273632
O 1.111440 -0.447738 0.476301
H 0.960504 -1.397180 0.599397
6
Step 13-14 Interpolated 1/9
C 0.006468 0.117188 -0.018792
O -0.966829 -0.810055 -0.188770
H -1.740866 -0.348980 -0.548150
O -0.100618 1.280864 -0.273709
O 1.111451 -0.447771 0.476197
H 0.960518 -1.397207 0.599353
6
Step 13-14 Interpolated 2/9
C 0.006467 0.117149 -0.018890
O -0.966803 -0.810092 -0.188893
H -1.740842 -0.348966 -0.548204
O -0.100639 1.280818 -0.273787
O 1.111462 -0.447803 0.476094
H 0.960532 -1.397234 0.599309
6
Step 13-14 Interpolated 3/9
C 0.006465 0.117109 -0.018988
O -0.966777 -0.810129 -0.189016
H -1.740818 -0.348951 -0.548257
O -0.100661 1.280772 -0.273864
O 1.111473 -0.447836 0.475990
H 0.960545 -1.397261 0.599264
6
Step 13-14 Interpolated 4/9
C 0.006464 0.117070 -0.019086
O -0.966751 -0.810166 -0.189139
H -1.740794 -0.348937 -0.548311
O -0.100682 1.280726 -0.273942
O 1.111484 -0.447868 0.475887
H 0.960559 -1.397288 0.599220
6
Step 13-14 Interpolated 5/9
C 0.006463 0.117031 -0.019185
O -0.966726 -0.810203 -0.189261
H -1.740770 -0.348922 -0.548365
O -0.100704 1.280680 -0.274019
O 1.111495 -0.447901 0.475784
H 0.960573 -1.397315 0.599176
6
Step 13-14 Interpolated 6/9
C 0.006461 0.116992 -0.019283
O -0.966700 -0.810240 -0.189384
H -1.740746 -0.348907 -0.548419
O -0.100726 1.280634 -0.274096
O 1.111506 -0.447934 0.475680
H 0.960587 -1.397342 0.599132
6
Step 13-14 Interpolated 7/9
C 0.006460 0.116953 -0.019381
O -0.966674 -0.810277 -0.189507
H -1.740722 -0.348893 -0.548473
O -0.100747 1.280588 -0.274174
O 1.111517 -0.447966 0.475577
H 0.960601 -1.397369 0.599088
6
Step 13-14 Interpolated 8/9
C 0.006458 0.116913 -0.019479
O -0.966648 -0.810314 -0.189630
H -1.740698 -0.348878 -0.548526
O -0.100769 1.280542 -0.274251
O 1.111528 -0.447999 0.475473
H 0.960614 -1.397396 0.599043
6
Step 13-14 Interpolated 9/9
C 0.006457 0.116874 -0.019577
O -0.966622 -0.810351 -0.189753
H -1.740674 -0.348864 -0.548580
O -0.100790 1.280496 -0.274329
O 1.111539 -0.448031 0.475370
H 0.960628 -1.397423 0.598999
6
Step 14
C 0.006455 0.116835 -0.019675
O -0.966596 -0.810388 -0.189876
H -1.740650 -0.348849 -0.548634
O -0.100812 1.280450 -0.274406
O 1.111550 -0.448064 0.475266
H 0.960642 -1.397450 0.598955