6
Step 1
C  0.0141963  -0.0818035  -0.2156
O  -1.26327  -0.705816  0.00892515
H  -1.66568  -0.711588  -0.842124
O  -0.00539554  1.56594  -0.0716068
O  1.29549  -0.661626  0.235115
H  1.07087  -1.46477  0.672589
6
Step 2
C  0.019256  -0.0238439  -0.166215
O  -1.16309  -0.695768  0.0334529
H  -1.59859  -0.694817  -0.826046
O  -0.0110258  1.40663  -0.0944287
O  1.21695  -0.606445  0.212075
H  0.982703  -1.44541  0.628461
6
Step 3
C  0.0195032  0.109127  -0.0771734
O  -1.05636  -0.642621  0.0457471
H  -1.52866  -0.662094  -0.813972
O  -0.00981917  1.10394  -0.12679
O  1.11213  -0.507352  0.179633
H  0.880815  -1.38585  0.558265
6
Step 4
C  0.0151959  0.122051  -0.0801754
O  -1.07225  -0.640961  0.0379977
H  -1.54158  -0.661251  -0.820505
O  -0.0151221  1.24566  -0.144253
O  1.11807  -0.515006  0.179756
H  0.882701  -1.39108  0.554842
6
Step 5
C  0.00620419  0.127937  -0.0263777
O  -1.08896  -0.674317  0.033949
H  -1.54966  -0.671009  -0.826157
O  -0.0231596  1.28367  -0.18909
O  1.13435  -0.55054  0.197091
H  0.907342  -1.43673  0.543493
6
Step 6
C  0.0214233  0.0942295  -0.0373924
O  -1.0339  -0.77789  -0.0422861
H  -1.63981  -0.54423  -0.762602
O  -0.0429866  1.25002  -0.271892
O  1.1486  -0.519151  0.341292
H  0.953821  -1.458  0.499054
6
Step 7
C  0.0188261  0.102189  -0.0569536
O  -0.946397  -0.850838  -0.237393
H  -1.72432  -0.405087  -0.587453
O  -0.0739573  1.26875  -0.332481
O  1.11394  -0.483443  0.437759
H  0.950079  -1.42796  0.529853
6
Step 8
C  0.00309628  0.117739  -0.013979
O  -1.012  -0.778789  -0.100727
H  -1.72646  -0.383847  -0.628542
O  -0.102427  1.27073  -0.261143
O  1.11751  -0.454072  0.458186
H  0.967246  -1.40661  0.575792
6
Step 9
C  -0.00207295  0.120633  -0.000880392
O  -0.960549  -0.812603  -0.142668
H  -1.67888  -0.370938  -0.614046
O  -0.105356  1.29374  -0.320336
O  1.10591  -0.469829  0.438629
H  0.953598  -1.41657  0.541181
6
Step 10
C  0.00368285  0.120864  -0.00015054
O  -0.973602  -0.805222  -0.145439
H  -1.70019  -0.363811  -0.609783
O  -0.0949522  1.27582  -0.303406
O  1.11804  -0.457916  0.452
H  0.970895  -1.40855  0.554517
6
Step 11
C  0.0122483  0.111764  -0.0330209
O  -0.963478  -0.812317  -0.200101
H  -1.73201  -0.348661  -0.569428
O  -0.0949738  1.27491  -0.29144
O  1.11939  -0.45047  0.46156
H  0.972948  -1.40118  0.58085
6
Step 12
C  0.00810559  0.117776  -0.022035
O  -0.96415  -0.810247  -0.192676
H  -1.73865  -0.347964  -0.549293
O  -0.0999369  1.28107  -0.274985
O  1.11316  -0.448005  0.47162
H  0.961082  -1.39647  0.599428
6
Step 13
C  0.00646973  0.117227  -0.0186939
O  -0.966855  -0.810018  -0.188647
H  -1.74089  -0.348995  -0.548096
O  -0.100596  1.28091  -0.273632
O  1.11144  -0.447738  0.476301
H  0.960504  -1.39718  0.599397
6
Step 14
C  0.00645535  0.116835  -0.0196752
O  -0.966596  -0.810388  -0.189876
H  -1.74065  -0.348849  -0.548634
O  -0.100812  1.28045  -0.274406
O  1.11155  -0.448064  0.475266
H  0.960642  -1.39745  0.598955
